ITEM: TIMESTEP
5000
ITEM: NUMBER OF ATOMS
66
ITEM: BOX BOUNDS pp pp pp
-3.0000000000000000e+01 3.0500000000000000e+01
-3.0000000000000000e+01 3.0500000000000000e+01
-3.0000000000000000e+01 3.0500000000000000e+01
ITEM: ATOMS id type xs ys zs
47 880 0.472338 0.453012 0.453902
46 419 0.483475 0.481172 0.475301
43 415 0.510176 0.474354 0.476374
44 416 0.521526 0.492417 0.466037
61 82 0.59107 0.473645 0.481216
62 85 0.583497 0.466715 0.46638
13 908 0.589671 0.499135 0.479318
45 416 0.508965 0.453337 0.465214
53 408 0.555138 0.471341 0.498172
18 911 0.585964 0.49866 0.443945
54 907 0.618377 0.440875 0.478198
55 910 0.611146 0.435818 0.462478
59 85 0.622689 0.470401 0.497959
57 910 0.635887 0.436628 0.477708
60 85 0.625027 0.474369 0.469634
56 910 0.610851 0.430974 0.491227
58 81 0.615355 0.465769 0.482155
37 911 0.483921 0.543764 0.488084
35 431 0.495829 0.533683 0.49707
36 911 0.502725 0.522871 0.48448
9 911 0.537754 0.536177 0.484695
15 911 0.572832 0.504522 0.482895
7 908 0.533281 0.552034 0.492073
16 908 0.595542 0.507887 0.456133
19 908 0.590468 0.532582 0.453039
21 911 0.591537 0.536533 0.43548
5 911 0.565722 0.565265 0.488445
8 911 0.527946 0.562271 0.478228
20 911 0.573399 0.535957 0.45781
63 907 0.606282 0.54779 0.465735
64 910 0.602348 0.565112 0.462688
65 910 0.605249 0.545035 0.483495
66 910 0.623367 0.545117 0.460666
14 911 0.600047 0.506848 0.491872
17 911 0.612857 0.504768 0.452273
39 407 0.479186 0.489847 0.533218
41 417 0.516268 0.471385 0.504687
42 418 0.503958 0.460127 0.51139
52 407 0.541269 0.44576 0.522175
12 911 0.522389 0.492389 0.533097
48 431 0.577486 0.464949 0.501033
49 911 0.58363 0.471549 0.516645
50 911 0.578679 0.446982 0.502001
51 406 0.538839 0.461119 0.509032
10 908 0.514819 0.49385 0.516814
40 408 0.483968 0.520989 0.512914
38 406 0.49095 0.501316 0.521257
29 910 0.48079 0.585732 0.539014
28 910 0.471985 0.560049 0.528756
32 85 0.496719 0.579826 0.501436
26 907 0.486478 0.569385 0.534005
27 910 0.493279 0.561259 0.548585
33 82 0.513524 0.548744 0.507968
34 85 0.519767 0.540161 0.522479
11 911 0.524854 0.505838 0.508005
23 910 0.544229 0.551485 0.546953
30 81 0.503807 0.571141 0.515553
31 85 0.51706 0.581675 0.521669
6 911 0.551408 0.578376 0.509316
22 907 0.561772 0.55247 0.543058
24 910 0.570347 0.540957 0.553958
25 910 0.567335 0.569091 0.547256
1 908 0.566616 0.547083 0.518744
2 911 0.584366 0.548951 0.516256
3 911 0.563052 0.529738 0.51532
4 908 0.554456 0.562128 0.502165
ITEM: TIMESTEP
10000
ITEM: NUMBER OF ATOMS
66
ITEM: BOX BOUNDS pp pp pp
-3.0000000000000000e+01 3.0500000000000000e+01
-3.0000000000000000e+01 3.0500000000000000e+01
-3.0000000000000000e+01 3.0500000000000000e+01
ITEM: ATOMS id type xs ys zs
47 880 0.472337 0.453012 0.453902
46 419 0.483472 0.481175 0.475302
43 415 0.510178 0.474356 0.476372
44 416 0.521523 0.492414 0.46604
61 82 0.59107 0.473646 0.481217
62 85 0.583505 0.466714 0.466378
13 908 0.589671 0.499135 0.479316
45 416 0.508965 0.453336 0.465215
53 408 0.555139 0.471341 0.498172
18 911 0.585958 0.498677 0.443944
54 907 0.618377 0.440875 0.4782
55 910 0.611145 0.435821 0.462476
59 85 0.622694 0.470392 0.497972
57 910 0.635884 0.436619 0.47771
60 85 0.625016 0.474368 0.46963
56 910 0.610862 0.430965 0.491224
58 81 0.615355 0.46577 0.482157
37 911 0.483912 0.543769 0.488082
35 431 0.495827 0.533684 0.49707
36 911 0.502734 0.522873 0.484476
9 911 0.53776 0.536171 0.484698
15 911 0.57284 0.504524 0.482883
7 908 0.533281 0.552035 0.492073
16 908 0.595541 0.507888 0.456133
19 908 0.590468 0.53258 0.453039
21 911 0.591536 0.536546 0.435478
5 911 0.565724 0.56525 0.48844
8 911 0.527939 0.562277 0.47822
20 911 0.573407 0.535966 0.457813
63 907 0.606282 0.54779 0.465736
64 910 0.602339 0.565107 0.462692
65 910 0.60527 0.545038 0.483493
66 910 0.623372 0.545112 0.46068
14 911 0.600031 0.50685 0.491868
17 911 0.612853 0.504762 0.452261
39 407 0.479186 0.489847 0.533216
41 417 0.516269 0.471386 0.504691
42 418 0.503962 0.460143 0.511379
52 407 0.541271 0.44576 0.522175
12 911 0.522406 0.4924 0.533093
48 431 0.577487 0.464948 0.501034
49 911 0.583646 0.471551 0.516632
50 911 0.578668 0.446978 0.501989
51 406 0.538838 0.461117 0.509033
10 908 0.514818 0.493849 0.516813
40 408 0.483968 0.520988 0.512914
38 406 0.490951 0.501316 0.521257
29 910 0.480795 0.58573 0.539025
28 910 0.471987 0.560046 0.528747
32 85 0.496713 0.579828 0.501437
26 907 0.486478 0.569384 0.534006
27 910 0.493276 0.561239 0.548579
33 82 0.513527 0.548743 0.507968
34 85 0.51978 0.540167 0.522471
11 911 0.524855 0.505842 0.508015
23 910 0.544229 0.551476 0.546951
30 81 0.503808 0.571141 0.515552
31 85 0.517047 0.58169 0.521678
6 911 0.551396 0.578371 0.509304
22 907 0.561768 0.552471 0.543059
24 910 0.570352 0.540971 0.553955
25 910 0.567324 0.569089 0.54725
1 908 0.566616 0.547082 0.518743
2 911 0.584368 0.548936 0.516255
3 911 0.563029 0.529733 0.515315
4 908 0.554457 0.562127 0.502165
ITEM: TIMESTEP
15000
ITEM: NUMBER OF ATOMS
66
ITEM: BOX BOUNDS pp pp pp
-3.0000000000000000e+01 3.0500000000000000e+01
-3.0000000000000000e+01 3.0500000000000000e+01
-3.0000000000000000e+01 3.0500000000000000e+01
ITEM: ATOMS id type xs ys zs
47 880 0.472335 0.453011 0.453903
46 419 0.483469 0.48118 0.475303
43 415 0.510181 0.474358 0.476369
44 416 0.52152 0.492411 0.466044
61 82 0.59107 0.473648 0.481219
62 85 0.583518 0.466714 0.466374
13 908 0.58967 0.499135 0.479312
45 416 0.508965 0.453336 0.465216
53 408 0.55514 0.47134 0.498172
18 911 0.585944 0.498699 0.443938
54 907 0.618377 0.440874 0.478202
55 910 0.611144 0.435826 0.462477
59 85 0.622695 0.470376 0.497978
57 910 0.635881 0.436607 0.477711
60 85 0.625003 0.47437 0.469622
56 910 0.610874 0.430949 0.491223
58 81 0.615355 0.465772 0.482161
37 911 0.483907 0.543768 0.488085
35 431 0.495825 0.533687 0.497069
36 911 0.502741 0.522882 0.484477
9 911 0.537765 0.536171 0.484705
15 911 0.572838 0.504529 0.482867
7 908 0.533281 0.552035 0.492071
16 908 0.595541 0.50789 0.456132
19 908 0.590469 0.532578 0.453038
21 911 0.591533 0.536563 0.435482
5 911 0.565726 0.565228 0.488435
8 911 0.527935 0.562276 0.478221
20 911 0.573412 0.53598 0.457819
63 907 0.606283 0.547789 0.465736
64 910 0.602327 0.565105 0.462697
65 910 0.605298 0.54504 0.483497
66 910 0.623376 0.545106 0.460697
14 911 0.600015 0.506859 0.491874
17 911 0.612846 0.504753 0.452242
39 407 0.479186 0.489848 0.533213
41 417 0.516273 0.471389 0.504697
42 418 0.503949 0.46015 0.511374
52 407 0.541273 0.44576 0.522174
12 911 0.522426 0.492417 0.533084
48 431 0.577488 0.464945 0.501035
49 911 0.583674 0.471554 0.516621
50 911 0.578653 0.446973 0.501972
51 406 0.538837 0.461114 0.509035
10 908 0.514816 0.493848 0.516814
40 408 0.483967 0.520987 0.512915
38 406 0.490952 0.501317 0.521258
29 910 0.480803 0.585725 0.539045
28 910 0.471992 0.560046 0.528735
32 85 0.496705 0.579828 0.501441
26 907 0.486479 0.569381 0.534007
27 910 0.493271 0.561208 0.548568
33 82 0.513531 0.548743 0.507969
34 85 0.519803 0.540169 0.522467
11 911 0.524854 0.505847 0.508026
23 910 0.544224 0.551461 0.546952
30 81 0.503809 0.571142 0.515551
31 85 0.517027 0.58171 0.521688
6 911 0.551379 0.578373 0.50929
22 907 0.561762 0.552471 0.543059
24 910 0.570364 0.540987 0.553958
25 910 0.567307 0.569096 0.547242
1 908 0.566614 0.54708 0.518742
2 911 0.58437 0.548911 0.516253
3 911 0.562998 0.529739 0.515312
4 908 0.554458 0.562125 0.502163
ITEM: TIMESTEP
20000
ITEM: NUMBER OF ATOMS
66
ITEM: BOX BOUNDS pp pp pp
-3.0000000000000000e+01 3.0500000000000000e+01
-3.0000000000000000e+01 3.0500000000000000e+01
-3.0000000000000000e+01 3.0500000000000000e+01
ITEM: ATOMS id type xs ys zs
47 880 0.472333 0.453011 0.453904
46 419 0.483467 0.481187 0.475304
43 415 0.510183 0.47436 0.476366
44 416 0.521517 0.49241 0.466048
61 82 0.59107 0.47365 0.481221
62 85 0.583531 0.466715 0.466372
13 908 0.589669 0.499135 0.479306
45 416 0.508965 0.453336 0.465217
53 408 0.555143 0.47134 0.498172
18 911 0.585923 0.498721 0.443931
54 907 0.618377 0.440873 0.478204
55 910 0.611144 0.435833 0.462482
59 85 0.622695 0.47036 0.497978
57 910 0.635879 0.436596 0.477711
60 85 0.624992 0.474373 0.469615
56 910 0.610884 0.430933 0.491224
58 81 0.615355 0.465773 0.482167
37 911 0.483905 0.543765 0.488092
35 431 0.495823 0.53369 0.497069
36 911 0.502746 0.522896 0.484481
9 911 0.53777 0.536174 0.484713
15 911 0.572825 0.504533 0.482848
7 908 0.533281 0.552036 0.492067
16 908 0.595541 0.507892 0.45613
19 908 0.590471 0.532577 0.453037
21 911 0.59153 0.536579 0.43549
5 911 0.565728 0.565203 0.488431
8 911 0.527934 0.56227 0.478228
20 911 0.573414 0.535992 0.457828
63 907 0.606285 0.547787 0.465738
64 910 0.602314 0.565105 0.462703
65 910 0.605325 0.54504 0.483504
66 910 0.62338 0.545105 0.460711
14 911 0.600001 0.506873 0.491885
17 911 0.612839 0.504742 0.452219
39 407 0.479186 0.489849 0.53321
41 417 0.516277 0.471393 0.504701
42 418 0.503929 0.460149 0.511375
52 407 0.541277 0.445759 0.522174
12 911 0.522445 0.492434 0.533072
48 431 0.57749 0.464941 0.501034
49 911 0.583705 0.471553 0.516616
50 911 0.578639 0.446967 0.501954
51 406 0.538837 0.461111 0.509036
10 908 0.514816 0.493847 0.516815
40 408 0.483966 0.520985 0.512916
38 406 0.490953 0.501317 0.521259
29 910 0.480813 0.585715 0.539072
28 910 0.471997 0.560051 0.528719
32 85 0.496696 0.579825 0.501445
26 907 0.48648 0.569376 0.534009
27 910 0.493263 0.561169 0.548552
33 82 0.513537 0.548743 0.507969
34 85 0.519828 0.540169 0.522466
11 911 0.524849 0.505851 0.508032
23 910 0.544214 0.551441 0.546956
30 81 0.50381 0.571144 0.515551
31 85 0.517007 0.58173 0.521696
6 911 0.551365 0.57838 0.509273
22 907 0.561754 0.552472 0.543058
24 910 0.570382 0.541004 0.553967
25 910 0.567283 0.569113 0.547233
1 908 0.566611 0.547076 0.51874
2 911 0.584369 0.548878 0.516249
3 911 0.56296 0.529754 0.515312
4 908 0.554458 0.562121 0.50216
ITEM: TIMESTEP
25000
ITEM: NUMBER OF ATOMS
66
ITEM: BOX BOUNDS pp pp pp
-3.0000000000000000e+01 3.0500000000000000e+01
-3.0000000000000000e+01 3.0500000000000000e+01
-3.0000000000000000e+01 3.0500000000000000e+01
ITEM: ATOMS id type xs ys zs
47 880 0.47233 0.45301 0.453906
46 419 0.483465 0.481195 0.475306
43 415 0.510185 0.474361 0.476364
44 416 0.521515 0.49241 0.466052
61 82 0.591071 0.473651 0.481224
62 85 0.583541 0.466715 0.46637
13 908 0.589667 0.499137 0.4793
45 416 0.508965 0.453336 0.465218
53 408 0.555145 0.47134 0.498173
18 911 0.585899 0.498743 0.443929
54 907 0.618378 0.440871 0.478208
55 910 0.611141 0.435838 0.462485
59 85 0.6227 0.470353 0.497983
57 910 0.635879 0.436589 0.477707
60 85 0.624984 0.474375 0.469617
56 910 0.61089 0.430921 0.491224
58 81 0.615355 0.465774 0.482173
37 911 0.4839 0.543766 0.488097
35 431 0.495821 0.533694 0.49707
36 911 0.502747 0.522905 0.48448
9 911 0.537773 0.536175 0.484717
15 911 0.572815 0.50453 0.482824
7 908 0.533282 0.552037 0.492064
16 908 0.59554 0.507895 0.456125
19 908 0.590474 0.532578 0.453037
21 911 0.591526 0.536591 0.435493
5 911 0.565732 0.56518 0.488425
8 911 0.527931 0.562266 0.478226
20 911 0.57342 0.535999 0.457837
63 907 0.606289 0.547785 0.465742
64 910 0.602307 0.565101 0.462711
65 910 0.605344 0.545038 0.483509
66 910 0.623384 0.545108 0.460714
14 911 0.599982 0.506884 0.49189
17 911 0.612831 0.50473 0.452194
39 407 0.479185 0.489849 0.533205
41 417 0.516279 0.471396 0.504703
42 418 0.503921 0.460157 0.511374
52 407 0.541281 0.445758 0.522174
12 911 0.522461 0.492447 0.533067
48 431 0.577493 0.464936 0.501032
49 911 0.583729 0.47154 0.51661
50 911 0.57863 0.446961 0.501936
51 406 0.538837 0.461108 0.509036
10 908 0.514817 0.493849 0.516817
40 408 0.483965 0.520983 0.512916
38 406 0.490954 0.501319 0.521259
29 910 0.480825 0.5857 0.539106
28 910 0.471996 0.560061 0.5287
32 85 0.496687 0.579821 0.501446
26 907 0.486482 0.569368 0.53401
27 910 0.493257 0.561123 0.548534
33 82 0.513545 0.548744 0.507969
34 85 0.519848 0.540168 0.522461
11 911 0.524842 0.505854 0.508028
23 910 0.544207 0.551416 0.546963
30 81 0.503809 0.571147 0.515552
31 85 0.516993 0.581749 0.5217
6 911 0.551359 0.578382 0.509254
22 907 0.561745 0.552474 0.543057
24 910 0.570398 0.541029 0.553972
25 910 0.567247 0.569128 0.54722
1 908 0.566606 0.547072 0.518739
2 911 0.584367 0.548837 0.516244
3 911 0.562919 0.529758 0.515315
4 908 0.554459 0.562118 0.502155
ITEM: TIMESTEP
30000
ITEM: NUMBER OF ATOMS
66
ITEM: BOX BOUNDS pp pp pp
-3.0000000000000000e+01 3.0500000000000000e+01
-3.0000000000000000e+01 3.0500000000000000e+01
-3.0000000000000000e+01 3.0500000000000000e+01
ITEM: ATOMS id type xs ys zs
47 880 0.472326 0.45301 0.453908
46 419 0.483464 0.481203 0.475307
43 415 0.510185 0.474361 0.476364
44 416 0.521515 0.492414 0.466053
61 82 0.591073 0.473652 0.481226
62 85 0.583548 0.466716 0.466369
13 908 0.589664 0.49914 0.479295
45 416 0.508966 0.453336 0.465219
53 408 0.555149 0.471339 0.498175
18 911 0.585875 0.498762 0.443933
54 907 0.618378 0.440868 0.478212
55 910 0.611136 0.435841 0.462486
59 85 0.622709 0.470357 0.497995
57 910 0.635879 0.436589 0.477699
60 85 0.624981 0.474376 0.469628
56 910 0.610891 0.430916 0.491223
58 81 0.615354 0.465773 0.48218
37 911 0.483892 0.543774 0.488097
35 431 0.49582 0.533698 0.497073
36 911 0.502745 0.522908 0.484474
9 911 0.537774 0.53617 0.484713
15 911 0.572812 0.504518 0.482797
7 908 0.533284 0.552038 0.492061
16 908 0.595538 0.507897 0.456117
19 908 0.590477 0.532582 0.45304
21 911 0.591523 0.536599 0.43549
5 911 0.565737 0.565162 0.488417
8 911 0.527927 0.562268 0.478212
20 911 0.573429 0.535998 0.457844
63 907 0.606293 0.547782 0.465747
64 910 0.602307 0.565094 0.46272
65 910 0.605351 0.545032 0.48351
66 910 0.623388 0.545118 0.460703
14 911 0.599958 0.50689 0.491885
17 911 0.612823 0.504718 0.452169
39 407 0.479185 0.489849 0.533201
41 417 0.516278 0.471398 0.504704
42 418 0.503932 0.460174 0.511371
52 407 0.541286 0.445755 0.522175
12 911 0.522471 0.492455 0.533071
48 431 0.577496 0.464932 0.501029
49 911 0.583742 0.471514 0.516605
50 911 0.578629 0.446955 0.501922
51 406 0.53884 0.461107 0.509036
10 908 0.514819 0.493853 0.516819
40 408 0.483965 0.520982 0.512916
38 406 0.490956 0.50132 0.52126
29 910 0.48084 0.585682 0.539146
28 910 0.471987 0.560076 0.528679
32 85 0.496677 0.579817 0.501445
26 907 0.486485 0.569358 0.53401
27 910 0.493251 0.561071 0.548517
33 82 0.513552 0.548746 0.507969
34 85 0.519857 0.540168 0.522452
11 911 0.524832 0.505855 0.508012
23 910 0.544205 0.551387 0.546973
30 81 0.503808 0.57115 0.515554
31 85 0.516989 0.581762 0.521696
6 911 0.551367 0.57838 0.509233
22 907 0.561735 0.552477 0.543055
24 910 0.57041 0.541062 0.553974
25 910 0.567201 0.569139 0.547202
1 908 0.566598 0.547067 0.518739
2 911 0.584362 0.548793 0.516237
3 911 0.562876 0.52975 0.51532
4 908 0.554458 0.562114 0.502148
ITEM: TIMESTEP
35000
ITEM: NUMBER OF ATOMS
66
ITEM: BOX BOUNDS pp pp pp
-3.0000000000000000e+01 3.0500000000000000e+01
-3.0000000000000000e+01 3.0500000000000000e+01
-3.0000000000000000e+01 3.0500000000000000e+01
ITEM: ATOMS id type xs ys zs
47 880 0.472323 0.45301 0.453912
46 419 0.483466 0.481211 0.475307
43 415 0.510183 0.474361 0.476366
44 416 0.521517 0.49242 0.466054
61 82 0.591076 0.473652 0.481227
62 85 0.583549 0.466716 0.466371
13 908 0.589659 0.499143 0.479288
45 416 0.508966 0.453336 0.46522
53 408 0.555152 0.471339 0.498178
18 911 0.58585 0.498773 0.443938
54 907 0.618379 0.440865 0.478216
55 910 0.61113 0.435842 0.462489
59 85 0.622715 0.470368 0.498002
57 910 0.635882 0.436594 0.47769
60 85 0.624986 0.474377 0.469645
56 910 0.610887 0.430915 0.491225
58 81 0.615353 0.465771 0.482189
37 911 0.483889 0.543782 0.488101
35 431 0.495821 0.533703 0.497077
36 911 0.502735 0.522911 0.484469
9 911 0.537772 0.536166 0.484706
15 911 0.572803 0.504501 0.482772
7 908 0.533285 0.552038 0.492057
16 908 0.595536 0.507899 0.456107
19 908 0.590482 0.532589 0.453043
21 911 0.59152 0.536601 0.43549
5 911 0.565743 0.565148 0.488411
8 911 0.527927 0.562267 0.4782
20 911 0.573435 0.535992 0.457852
63 907 0.6063 0.547779 0.465753
64 910 0.602313 0.565089 0.462732
65 910 0.605349 0.545021 0.483513
66 910 0.623389 0.545132 0.460682
14 911 0.599938 0.506898 0.49188
17 911 0.612815 0.504707 0.452145
39 407 0.479183 0.489849 0.533196
41 417 0.516278 0.4714 0.504702
42 418 0.503942 0.460182 0.511375
52 407 0.54129 0.445752 0.522177
12 911 0.522473 0.492459 0.533078
48 431 0.5775 0.464926 0.501024
49 911 0.583744 0.471481 0.516608
50 911 0.578636 0.44695 0.501909
51 406 0.538843 0.461107 0.509036
10 908 0.514824 0.49386 0.516822
40 408 0.483964 0.520981 0.512916
38 406 0.490958 0.501322 0.521261
29 910 0.480858 0.58566 0.53919
28 910 0.471973 0.560098 0.528658
32 85 0.496668 0.579811 0.501445
26 907 0.486488 0.569344 0.534011
27 910 0.493246 0.561016 0.548499
33 82 0.513559 0.548749 0.50797
34 85 0.519858 0.540166 0.522447
11 911 0.524823 0.505854 0.507987
23 910 0.544202 0.551353 0.546984
30 81 0.503807 0.571155 0.515558
31 85 0.516993 0.581769 0.521686
6 911 0.551385 0.57838 0.509215
22 907 0.561724 0.55248 0.543053
24 910 0.570424 0.541096 0.553976
25 910 0.567146 0.569156 0.547182
1 908 0.566587 0.54706 0.51874
2 911 0.584355 0.548748 0.516229
3 911 0.562838 0.529741 0.515333
4 908 0.554459 0.562109 0.50214
ITEM: TIMESTEP
40000
ITEM: NUMBER OF ATOMS
66
ITEM: BOX BOUNDS pp pp pp
-3.0000000000000000e+01 3.0500000000000000e+01
-3.0000000000000000e+01 3.0500000000000000e+01
-3.0000000000000000e+01 3.0500000000000000e+01
ITEM: ATOMS id type xs ys zs
47 880 0.472318 0.45301 0.453916
46 419 0.483469 0.481219 0.475308
43 415 0.510181 0.47436 0.476369
44 416 0.521519 0.492428 0.466054
61 82 0.59108 0.473653 0.481228
62 85 0.583548 0.466715 0.466375
13 908 0.589653 0.499145 0.47928
45 416 0.508966 0.453337 0.465221
53 408 0.555156 0.471339 0.498182
18 911 0.585824 0.498774 0.443939
54 907 0.618379 0.440862 0.47822
55 910 0.611126 0.435843 0.462498
59 85 0.622713 0.47038 0.498
57 910 0.635885 0.436602 0.477681
60 85 0.624998 0.474379 0.469663
56 910 0.61088 0.430917 0.491231
58 81 0.615354 0.465768 0.482199
37 911 0.483895 0.543787 0.488112
35 431 0.495822 0.533708 0.497081
36 911 0.502718 0.522918 0.48447
9 911 0.537764 0.536169 0.484698
15 911 0.572781 0.504486 0.482753
7 908 0.533286 0.552038 0.49205
16 908 0.595532 0.507902 0.456096
19 908 0.590488 0.532598 0.453047
21 911 0.591519 0.5366 0.435496
5 911 0.565747 0.565138 0.488405
8 911 0.527932 0.56226 0.478197
20 911 0.573435 0.535985 0.457862
63 907 0.606308 0.547775 0.46576
64 910 0.602322 0.565089 0.462747
65 910 0.605343 0.545004 0.48352
66 910 0.62339 0.545146 0.460657
14 911 0.599926 0.506911 0.49188
17 911 0.612806 0.504696 0.452122
39 407 0.479182 0.489848 0.533191
41 417 0.516278 0.471403 0.504698
42 418 0.503942 0.460172 0.511388
52 407 0.541296 0.445748 0.522178
12 911 0.52247 0.492463 0.533082
48 431 0.577504 0.46492 0.501018
49 911 0.583739 0.471446 0.516623
50 911 0.578646 0.446945 0.501897
51 406 0.538848 0.461108 0.509036
10 908 0.514829 0.493867 0.516825
40 408 0.483964 0.52098 0.512915
38 406 0.49096 0.501325 0.521261
29 910 0.480883 0.585636 0.539237
28 910 0.471958 0.560126 0.528638
32 85 0.496661 0.579807 0.501448
26 907 0.486491 0.569327 0.534011
27 910 0.493241 0.560956 0.548477
33 82 0.513564 0.548755 0.507969
34 85 0.519855 0.54016 0.52245
11 911 0.524816 0.505852 0.507962
23 910 0.544195 0.551315 0.546997
30 81 0.503806 0.571159 0.515561
31 85 0.517003 0.581769 0.521672
6 911 0.55141 0.578385 0.509202
22 907 0.561712 0.552485 0.543049
24 910 0.570443 0.541128 0.553983
25 910 0.567089 0.569184 0.547162
1 908 0.566571 0.54705 0.51874
2 911 0.584342 0.548708 0.516223
3 911 0.562805 0.529739 0.515353
4 908 0.55446 0.562104 0.50213
ITEM: TIMESTEP
45000
ITEM: NUMBER OF ATOMS
66
ITEM: BOX BOUNDS pp pp pp
-3.0000000000000000e+01 3.0500000000000000e+01
-3.0000000000000000e+01 3.0500000000000000e+01
-3.0000000000000000e+01 3.0500000000000000e+01
ITEM: ATOMS id type xs ys zs
47 880 0.472314 0.453011 0.45392
46 419 0.483474 0.481226 0.475307
43 415 0.510177 0.474362 0.476373
44 416 0.521522 0.492435 0.466054
61 82 0.591084 0.473654 0.481227
62 85 0.583547 0.466713 0.46638
13 908 0.589646 0.499146 0.47927
45 416 0.508966 0.453337 0.465222
53 408 0.555161 0.471338 0.498186
18 911 0.585803 0.498772 0.443936
54 907 0.61838 0.44086 0.478224
55 910 0.61112 0.435842 0.462508
59 85 0.622705 0.470392 0.498002
57 910 0.635888 0.43661 0.477676
60 85 0.625012 0.474377 0.469682
56 910 0.610877 0.430919 0.491239
58 81 0.615356 0.465764 0.48221
37 911 0.483903 0.543796 0.488126
35 431 0.495824 0.533713 0.497086
36 911 0.5027 0.522924 0.48447
9 911 0.537754 0.536172 0.484688
15 911 0.572759 0.504473 0.482738
7 908 0.533287 0.552038 0.492042
16 908 0.595526 0.507904 0.456083
19 908 0.590494 0.532606 0.453051
21 911 0.591519 0.536603 0.435503
5 911 0.565753 0.565129 0.488396
8 911 0.527939 0.562254 0.478195
20 911 0.573436 0.535983 0.457872
63 907 0.606318 0.547772 0.465766
64 910 0.602332 0.565091 0.462767
65 910 0.605342 0.544983 0.483526
66 910 0.623392 0.545157 0.460636
14 911 0.599915 0.506926 0.491879
17 911 0.612797 0.504687 0.452103
39 407 0.47918 0.489846 0.533186
41 417 0.51628 0.471406 0.504695
42 418 0.503944 0.460161 0.511402
52 407 0.541301 0.445744 0.522179
12 911 0.522468 0.492468 0.533084
48 431 0.577507 0.464912 0.501011
49 911 0.583726 0.471414 0.516639
50 911 0.578656 0.446937 0.501881
51 406 0.538853 0.461108 0.509037
10 908 0.514835 0.493875 0.516827
40 408 0.483965 0.520981 0.512914
38 406 0.490962 0.501327 0.521261
29 910 0.480915 0.585611 0.539285
28 910 0.47194 0.560154 0.528618
32 85 0.496654 0.579805 0.501455
26 907 0.486493 0.569308 0.534013
27 910 0.493235 0.560891 0.548453
33 82 0.513566 0.548761 0.507968
34 85 0.519848 0.540158 0.522454
11 911 0.524814 0.50585 0.507942
23 910 0.544184 0.551273 0.547008
30 81 0.503807 0.571161 0.515563
31 85 0.517015 0.581765 0.521659
6 911 0.551438 0.57839 0.509191
22 907 0.561698 0.55249 0.543045
24 910 0.570467 0.541163 0.553991
25 910 0.56703 0.569216 0.54714
1 908 0.566553 0.547037 0.51874
2 911 0.584323 0.548673 0.51622
3 911 0.562776 0.529733 0.515375
4 908 0.554464 0.562098 0.502119
ITEM: TIMESTEP
50000
ITEM: NUMBER OF ATOMS
66
ITEM: BOX BOUNDS pp pp pp
-3.0000000000000000e+01 3.0500000000000000e+01
-3.0000000000000000e+01 3.0500000000000000e+01
-3.0000000000000000e+01 3.0500000000000000e+01
ITEM: ATOMS id type xs ys zs
47 880 0.472309 0.453012 0.453926
46 419 0.483478 0.481233 0.475306
43 415 0.510175 0.474364 0.476376
44 416 0.521524 0.49244 0.466055
61 82 0.591089 0.473656 0.481225
62 85 0.583549 0.466709 0.466382
13 908 0.589638 0.499148 0.479261
45 416 0.508965 0.453338 0.465223
53 408 0.555166 0.471338 0.49819
18 911 0.58579 0.498773 0.443932
54 907 0.61838 0.44086 0.478228
55 910 0.611113 0.435839 0.462513
59 85 0.622697 0.4704 0.49802
57 910 0.635888 0.436613 0.477675
60 85 0.625024 0.474373 0.469701
56 910 0.610883 0.430921 0.491246
58 81 0.61536 0.465761 0.482219
37 911 0.483906 0.543812 0.488139
35 431 0.495827 0.533718 0.497092
36 911 0.502688 0.522927 0.484465
9 911 0.537745 0.536168 0.484675
15 911 0.572751 0.504462 0.482726
7 908 0.533287 0.552038 0.492033
16 908 0.595518 0.507906 0.456071
19 908 0.590499 0.532614 0.453055
21 911 0.591523 0.536616 0.435505
5 911 0.565762 0.565117 0.488383
8 911 0.527942 0.56226 0.478183
20 911 0.573446 0.535986 0.45788
63 907 0.606328 0.547771 0.465774
64 910 0.60234 0.565092 0.462793
65 910 0.605353 0.544961 0.483528
66 910 0.6234 0.545161 0.460624
14 911 0.599897 0.506935 0.491866
17 911 0.612787 0.504679 0.452086
39 407 0.479178 0.489844 0.53318
41 417 0.516282 0.471408 0.504696
42 418 0.503961 0.460163 0.511405
52 407 0.541306 0.445742 0.522179
12 911 0.522471 0.492478 0.533087
48 431 0.57751 0.464903 0.501006
49 911 0.58371 0.471385 0.516646
50 911 0.578661 0.446926 0.50186
51 406 0.538859 0.461108 0.509039
10 908 0.51484 0.493882 0.516826
40 408 0.483966 0.520982 0.512913
38 406 0.490965 0.50133 0.52126
29 910 0.480954 0.585587 0.539334
28 910 0.471919 0.56018 0.528599
32 85 0.496648 0.57981 0.501462
26 907 0.486495 0.569288 0.534016
27 910 0.493229 0.560818 0.54843
33 82 0.513566 0.548768 0.507968
34 85 0.519838 0.540164 0.522453
11 911 0.524819 0.505852 0.507933
23 910 0.544176 0.551229 0.547017
30 81 0.50381 0.571163 0.515565
31 85 0.517027 0.581761 0.521651
6 911 0.551463 0.578385 0.509179
22 907 0.561683 0.552497 0.543041
24 910 0.570491 0.541207 0.553992
25 910 0.566966 0.569242 0.547112
1 908 0.566531 0.547023 0.518741
2 911 0.584301 0.548646 0.51622
3 911 0.562745 0.529711 0.515395
4 908 0.554469 0.562093 0.502107
ITEM: TIMESTEP
55000
ITEM: NUMBER OF ATOMS
66
ITEM: BOX BOUNDS pp pp pp
-3.0000000000000000e+01 3.0500000000000000e+01
-3.0000000000000000e+01 3.0500000000000000e+01
-3.0000000000000000e+01 3.0500000000000000e+01
ITEM: ATOMS id type xs ys zs
47 880 0.472251 0.453051 0.454024
46 419 0.483475 0.481274 0.475302
43 415 0.510186 0.47441 0.476408
44 416 0.521546 0.492465 0.466082
61 82 0.591117 0.473622 0.481187
62 85 0.583672 0.466641 0.466313
13 908 0.589555 0.499114 0.479161
45 416 0.508936 0.4534 0.465252
53 408 0.555209 0.471344 0.498223
18 911 0.585683 0.498864 0.443782
54 907 0.618407 0.440872 0.478306
55 910 0.611084 0.435842 0.462618
59 85 0.622646 0.470336 0.498174
57 910 0.635907 0.436603 0.4777
60 85 0.625144 0.474458 0.469886
56 910 0.610943 0.430946 0.491351
58 81 0.615407 0.46578 0.4823
37 911 0.483856 0.543855 0.48815
35 431 0.495807 0.533773 0.49708
36 911 0.502659 0.522982 0.484445
9 911 0.537634 0.536215 0.484498
15 911 0.572674 0.504422 0.482657
7 908 0.533248 0.552077 0.491915
16 908 0.595409 0.507924 0.455977
19 908 0.590543 0.532701 0.453073
21 911 0.591585 0.536784 0.43554
5 911 0.565888 0.564812 0.488311
8 911 0.527908 0.562377 0.478118
20 911 0.573513 0.536162 0.457908
14 911 0.599835 0.506919 0.491733
63 907 0.606479 0.547725 0.465868
64 910 0.602505 0.565084 0.463096
65 910 0.605622 0.544748 0.483603
66 910 0.623519 0.545155 0.460589
17 911 0.612678 0.504653 0.452033
39 407 0.479197 0.489823 0.5331
41 417 0.516341 0.471437 0.504714
42 418 0.50402 0.460211 0.511436
52 407 0.541347 0.44572 0.522162
12 911 0.522494 0.492522 0.533072
48 431 0.577528 0.464813 0.500942
49 911 0.583821 0.471193 0.516583
50 911 0.578596 0.446825 0.50171
51 406 0.538913 0.461129 0.509071
10 908 0.514877 0.493923 0.516804
40 408 0.483988 0.521034 0.512937
38 406 0.49099 0.501352 0.521227
29 910 0.481369 0.585302 0.539894
28 910 0.471773 0.560429 0.5284
32 85 0.496741 0.579967 0.50159
26 907 0.486547 0.569064 0.534055
27 910 0.493136 0.56001 0.54818
33 82 0.513579 0.548802 0.507896
34 85 0.519903 0.540164 0.522332
11 911 0.524852 0.505901 0.507918
23 910 0.544051 0.550884 0.547184
30 81 0.503841 0.571142 0.515617
31 85 0.517078 0.58162 0.52187
6 911 0.551558 0.578287 0.508971
22 907 0.561472 0.552588 0.542996
24 910 0.570722 0.541765 0.554051
25 910 0.566317 0.569544 0.546722
1 908 0.566306 0.546849 0.518749
2 911 0.584093 0.548365 0.516297
3 911 0.562452 0.529535 0.515471
4 908 0.554491 0.561946 0.501984
ITEM: TIMESTEP
60000
ITEM: NUMBER OF ATOMS
66
ITEM: BOX BOUNDS pp pp pp
-3.0000000000000000e+01 3.0500000000000000e+01
-3.0000000000000000e+01 3.0500000000000000e+01
-3.0000000000000000e+01 3.0500000000000000e+01
ITEM: ATOMS id type xs ys zs
47 880 0.472165 0.453111 0.454194
46 419 0.483507 0.481385 0.475404
43 415 0.51021 0.474474 0.47643
44 416 0.52159 0.492519 0.466106
61 82 0.591114 0.473573 0.481085
62 85 0.583753 0.466574 0.466176
13 908 0.589506 0.499061 0.479097
45 416 0.508918 0.453461 0.465293
53 408 0.555246 0.471371 0.498231
18 911 0.585385 0.499064 0.443782
54 907 0.618543 0.440933 0.478423
55 910 0.611312 0.435819 0.462717
59 85 0.622608 0.470492 0.498188
57 910 0.636071 0.436769 0.477889
60 85 0.625134 0.474495 0.469879
56 910 0.611089 0.431002 0.491468
58 81 0.615416 0.465831 0.482315
37 911 0.48372 0.543888 0.488132
35 431 0.495723 0.533778 0.496972
36 911 0.502489 0.522959 0.484308
9 911 0.537392 0.536317 0.484011
15 911 0.572611 0.504325 0.482544
7 908 0.533129 0.552107 0.491662
16 908 0.595316 0.507949 0.455934
19 908 0.59064 0.532772 0.453149
21 911 0.591688 0.536941 0.435633
5 911 0.565981 0.564391 0.488195
8 911 0.527772 0.562634 0.478032
20 911 0.573653 0.536349 0.458035
14 911 0.599717 0.506862 0.491715
63 907 0.606705 0.547586 0.465991
64 910 0.602871 0.564993 0.463344
65 910 0.605837 0.544492 0.483703
66 910 0.623713 0.544896 0.460671
17 911 0.612511 0.504502 0.451824
39 407 0.479231 0.489796 0.532988
41 417 0.516366 0.471474 0.504737
42 418 0.504049 0.460273 0.511478
52 407 0.541364 0.445723 0.522138
12 911 0.522575 0.492652 0.533046
48 431 0.57754 0.464751 0.500848
49 911 0.583901 0.471069 0.516482
50 911 0.578541 0.446758 0.501565
51 406 0.53894 0.461153 0.509072
10 908 0.514926 0.49399 0.516785
40 408 0.484032 0.521117 0.512971
38 406 0.491032 0.501396 0.521194
29 910 0.481674 0.584985 0.540365
28 910 0.471704 0.560566 0.528245
32 85 0.49697 0.580119 0.5019
26 907 0.486604 0.568804 0.534162
27 910 0.492972 0.559302 0.548095
33 82 0.513549 0.548752 0.507719
34 85 0.519953 0.539991 0.522033
11 911 0.524866 0.505942 0.507825
23 910 0.543769 0.550808 0.547105
30 81 0.503991 0.571037 0.515801
31 85 0.517309 0.581322 0.522215
6 911 0.551686 0.578153 0.508662
22 907 0.56117 0.552726 0.542942
24 910 0.570533 0.542193 0.554171
25 910 0.565738 0.569802 0.54644
1 908 0.566067 0.546661 0.518781
2 911 0.583885 0.547947 0.516394
3 911 0.562028 0.529351 0.515667
4 908 0.554472 0.561732 0.501814
ITEM: TIMESTEP
65000
ITEM: NUMBER OF ATOMS
66
ITEM: BOX BOUNDS pp pp pp
-3.0000000000000000e+01 3.0500000000000000e+01
-3.0000000000000000e+01 3.0500000000000000e+01
-3.0000000000000000e+01 3.0500000000000000e+01
ITEM: ATOMS id type xs ys zs
47 880 0.472076 0.453212 0.454452
46 419 0.483563 0.481498 0.47544
43 415 0.510238 0.474534 0.476447
44 416 0.521625 0.49256 0.466116
61 82 0.591087 0.473577 0.481016
62 85 0.583727 0.466573 0.466108
13 908 0.589453 0.499058 0.47907
45 416 0.508884 0.453529 0.465314
53 408 0.555236 0.471372 0.498184
18 911 0.585221 0.499134 0.443731
54 907 0.618793 0.441012 0.478551
55 910 0.61174 0.435701 0.462834