ITEM: TIMESTEP
5000
ITEM: NUMBER OF ATOMS
66
ITEM: BOX BOUNDS pp pp pp
-3.0000000000000000e+01 3.0500000000000000e+01
-3.0000000000000000e+01 3.0500000000000000e+01
-3.0000000000000000e+01 3.0500000000000000e+01
ITEM: ATOMS id type xs ys zs
47 880 0.472561 0.452955 0.453667
46 419 0.483556 0.481148 0.475598
43 415 0.510183 0.4743 0.476215
44 416 0.521342 0.492582 0.465954
61 82 0.591267 0.473376 0.481158
62 85 0.583753 0.466677 0.46587
13 908 0.589538 0.499292 0.479311
45 416 0.508893 0.453359 0.465305
53 408 0.555202 0.471507 0.498065
18 911 0.585708 0.49867 0.443457
54 907 0.618475 0.440851 0.478362
55 910 0.610251 0.435672 0.46274
59 85 0.622233 0.469354 0.497486
57 910 0.635639 0.436653 0.477694
60 85 0.624519 0.475707 0.470535
56 910 0.610313 0.430866 0.49103
58 81 0.615263 0.465752 0.482022
37 911 0.483034 0.543795 0.487418
35 431 0.495672 0.533861 0.497216
36 911 0.502589 0.523343 0.484812
9 911 0.53826 0.536505 0.48544
15 911 0.572718 0.504424 0.483849
7 908 0.533216 0.552005 0.492111
16 908 0.595456 0.507903 0.456249
19 908 0.59065 0.532495 0.453025
21 911 0.591984 0.536908 0.435978
5 911 0.566575 0.565363 0.488574
8 911 0.527619 0.56121 0.477709
20 911 0.573571 0.536098 0.457021
63 907 0.606469 0.547566 0.465831
64 910 0.602338 0.56417 0.463198
65 910 0.605178 0.544745 0.482826
66 910 0.623656 0.545436 0.460359
14 911 0.599828 0.507671 0.491953
17 911 0.61299 0.505608 0.452354
39 407 0.479202 0.489654 0.533274
41 417 0.516038 0.471141 0.504965
42 418 0.50403 0.460478 0.511755
52 407 0.541153 0.445885 0.521955
12 911 0.522169 0.492443 0.533067
48 431 0.577281 0.464589 0.500914
49 911 0.582443 0.472373 0.51627
50 911 0.57802 0.447613 0.501874
51 406 0.538858 0.461234 0.50912
10 908 0.514877 0.493823 0.51724
40 408 0.484121 0.52099 0.513104
38 406 0.491043 0.501201 0.521251
29 910 0.479854 0.586034 0.539513
28 910 0.472082 0.559268 0.528274
32 85 0.496271 0.579723 0.500566
26 907 0.486246 0.569349 0.533932
27 910 0.494256 0.561751 0.549236
33 82 0.513554 0.548657 0.507915
34 85 0.519563 0.541041 0.522391
11 911 0.524454 0.506377 0.509238
23 910 0.544531 0.550942 0.546833
30 81 0.503727 0.571096 0.515511
31 85 0.516974 0.581326 0.520971
6 911 0.550821 0.578756 0.510441
22 907 0.561842 0.552668 0.543162
24 910 0.57096 0.54161 0.552793
25 910 0.568366 0.568863 0.546981
1 908 0.566712 0.547379 0.518567
2 911 0.585153 0.549268 0.515573
3 911 0.56282 0.529995 0.515788
4 908 0.554607 0.562234 0.502075
ITEM: TIMESTEP
10000
ITEM: NUMBER OF ATOMS
66
ITEM: BOX BOUNDS pp pp pp
-3.0000000000000000e+01 3.0500000000000000e+01
-3.0000000000000000e+01 3.0500000000000000e+01
-3.0000000000000000e+01 3.0500000000000000e+01
ITEM: ATOMS id type xs ys zs
47 880 0.472802 0.452898 0.453418
46 419 0.483627 0.481116 0.4759
43 415 0.510199 0.474261 0.476081
44 416 0.52114 0.492747 0.465869
61 82 0.591406 0.473134 0.481081
62 85 0.58418 0.466708 0.465685
13 908 0.589407 0.499431 0.479366
45 416 0.508815 0.453353 0.465376
53 408 0.555254 0.47167 0.497952
18 911 0.58585 0.498988 0.44348
54 907 0.618485 0.440819 0.47848
55 910 0.609743 0.435691 0.463363
59 85 0.622055 0.468589 0.497902
57 910 0.635833 0.436484 0.477656
60 85 0.62429 0.476972 0.471177
56 910 0.609967 0.430846 0.490905
58 81 0.615149 0.465705 0.48186
37 911 0.482913 0.543331 0.487433
35 431 0.495431 0.534096 0.497328
36 911 0.502634 0.523508 0.484902
9 911 0.538841 0.536226 0.486012
15 911 0.572741 0.50434 0.484536
7 908 0.533173 0.552004 0.492158
16 908 0.595342 0.507913 0.456297
19 908 0.590845 0.532413 0.45304
21 911 0.592557 0.537285 0.435941
5 911 0.56706 0.565539 0.488926
8 911 0.527323 0.560241 0.477165
20 911 0.573599 0.536265 0.456363
63 907 0.606697 0.547264 0.465857
64 910 0.602083 0.564161 0.463584
65 910 0.60519 0.544247 0.483159
66 910 0.6238 0.545731 0.460195
14 911 0.599436 0.508183 0.491731
17 911 0.61297 0.506295 0.452505
39 407 0.47923 0.489459 0.533318
41 417 0.515867 0.47098 0.505198
42 418 0.503602 0.460293 0.512368
52 407 0.541043 0.445991 0.521742
12 911 0.522219 0.492385 0.533766
48 431 0.577062 0.464362 0.500749
49 911 0.581438 0.472991 0.515998
50 911 0.577505 0.446809 0.501946
51 406 0.538845 0.461387 0.509174
10 908 0.51489 0.493773 0.517637
40 408 0.484277 0.520988 0.513311
38 406 0.491118 0.501066 0.521285
29 910 0.479183 0.585476 0.539576
28 910 0.472436 0.558642 0.528076
32 85 0.49622 0.579155 0.500573
26 907 0.486018 0.569332 0.533953
27 910 0.494605 0.562589 0.548907
33 82 0.513544 0.548637 0.507837
34 85 0.519638 0.541446 0.522856
11 911 0.524323 0.506974 0.510231
23 910 0.544582 0.55051 0.546972
30 81 0.503571 0.571057 0.515352
31 85 0.517149 0.581386 0.520521
6 911 0.55059 0.578121 0.510863
22 907 0.561943 0.552908 0.543148
24 910 0.572015 0.54158 0.552296
25 910 0.569211 0.568919 0.546859
1 908 0.566896 0.547694 0.518406
2 911 0.584924 0.549434 0.515098
3 911 0.562608 0.530276 0.516129
4 908 0.554738 0.562449 0.50201
ITEM: TIMESTEP
15000
ITEM: NUMBER OF ATOMS
66
ITEM: BOX BOUNDS pp pp pp
-3.0000000000000000e+01 3.0500000000000000e+01
-3.0000000000000000e+01 3.0500000000000000e+01
-3.0000000000000000e+01 3.0500000000000000e+01
ITEM: ATOMS id type xs ys zs
47 880 0.473041 0.452849 0.453177
46 419 0.48367 0.481071 0.476167
43 415 0.510225 0.474254 0.476019
44 416 0.520936 0.492889 0.46579
61 82 0.591428 0.473 0.481008
62 85 0.584635 0.46671 0.465756
13 908 0.589292 0.499486 0.479482
45 416 0.508739 0.453296 0.465401
53 408 0.555265 0.471805 0.497842
18 911 0.586225 0.499351 0.443813
54 907 0.618418 0.440781 0.478531
55 910 0.609726 0.435794 0.463976
59 85 0.621935 0.468212 0.49878
57 910 0.636171 0.436164 0.477595
60 85 0.624405 0.477613 0.471544
56 910 0.609971 0.430941 0.490991
58 81 0.615074 0.465659 0.481743
37 911 0.483276 0.542782 0.487966
35 431 0.495178 0.534298 0.497395
36 911 0.502741 0.523434 0.484908
9 911 0.53925 0.53559 0.486469
15 911 0.572818 0.50435 0.484699
7 908 0.533197 0.552001 0.492178
16 908 0.595227 0.507946 0.45628
19 908 0.591022 0.532371 0.453048
21 911 0.593219 0.537427 0.435572
5 911 0.567043 0.565943 0.489312
8 911 0.527208 0.559511 0.476784
20 911 0.57358 0.53641 0.456001
63 907 0.606915 0.546956 0.465857
64 910 0.601731 0.56468 0.463854
65 910 0.60543 0.543629 0.484042
66 910 0.623891 0.545896 0.460198
14 911 0.599116 0.508272 0.491394
17 911 0.61279 0.506568 0.452727
39 407 0.47927 0.489285 0.533338
41 417 0.515767 0.470944 0.505338
42 418 0.503034 0.45977 0.512942
52 407 0.540957 0.44605 0.521573
12 911 0.522328 0.492168 0.534827
48 431 0.576868 0.464255 0.500547
49 911 0.580877 0.473092 0.515848
50 911 0.577224 0.445369 0.50224
51 406 0.53878 0.461583 0.509159
10 908 0.514877 0.493708 0.517985
40 408 0.484416 0.520986 0.513522
38 406 0.491149 0.50092 0.521382
29 910 0.478702 0.584471 0.539175
28 910 0.472931 0.558235 0.528369
32 85 0.496351 0.578459 0.501085
26 907 0.485843 0.569324 0.534009
27 910 0.494333 0.563392 0.547997
33 82 0.513483 0.548707 0.507793
34 85 0.519827 0.541364 0.523458
11 911 0.524474 0.507277 0.510802
23 910 0.544601 0.550403 0.547439
30 81 0.503381 0.571021 0.515127
31 85 0.51726 0.581764 0.520336
6 911 0.550755 0.577113 0.510606
22 907 0.562132 0.553132 0.543008
24 910 0.573003 0.541165 0.552322
25 910 0.569492 0.56926 0.546972
1 908 0.567095 0.547987 0.518307
2 911 0.584156 0.549439 0.514899
3 911 0.562524 0.530628 0.516197
4 908 0.554814 0.562706 0.501971
ITEM: TIMESTEP
20000
ITEM: NUMBER OF ATOMS
66
ITEM: BOX BOUNDS pp pp pp
-3.0000000000000000e+01 3.0500000000000000e+01
-3.0000000000000000e+01 3.0500000000000000e+01
-3.0000000000000000e+01 3.0500000000000000e+01
ITEM: ATOMS id type xs ys zs
47 880 0.473278 0.45281 0.452945
46 419 0.483678 0.481004 0.476386
43 415 0.510261 0.474279 0.476043
44 416 0.520731 0.493001 0.465715
61 82 0.591335 0.473014 0.480974
62 85 0.584849 0.466525 0.465673
13 908 0.589192 0.499414 0.479597
45 416 0.508669 0.453194 0.465375
53 408 0.555216 0.471911 0.497734
18 911 0.586316 0.499265 0.443771
54 907 0.618365 0.440745 0.478552
55 910 0.609854 0.435732 0.463901
59 85 0.621426 0.468081 0.498956
57 910 0.635985 0.435904 0.47754
60 85 0.62474 0.477297 0.47178
56 910 0.610277 0.431086 0.491371
58 81 0.615096 0.465651 0.481775
37 911 0.483064 0.542963 0.488199
35 431 0.495045 0.53435 0.497459
36 911 0.502643 0.523447 0.485165
9 911 0.539209 0.535331 0.487034
15 911 0.572701 0.504518 0.484389
7 908 0.53331 0.551932 0.492147
16 908 0.59514 0.508034 0.456274
19 908 0.591159 0.53239 0.452981
21 911 0.593854 0.537128 0.435526
5 911 0.566814 0.566691 0.489304
8 911 0.52736 0.559057 0.47665
20 911 0.573754 0.536499 0.45593
63 907 0.607067 0.546751 0.465953
64 910 0.601683 0.564427 0.464155
65 910 0.606018 0.543139 0.484111
66 910 0.624131 0.545866 0.460267
14 911 0.599214 0.508132 0.4914
17 911 0.612641 0.506333 0.45295
39 407 0.479318 0.48913 0.533336
41 417 0.515677 0.471 0.505403
42 418 0.503141 0.459611 0.512963
52 407 0.540897 0.446062 0.521449
12 911 0.522059 0.491853 0.535274
48 431 0.576719 0.464102 0.500339
49 911 0.580833 0.472613 0.515745
50 911 0.577123 0.445331 0.502512
51 406 0.538673 0.461805 0.509076
10 908 0.514895 0.49364 0.51834
40 408 0.484525 0.520985 0.513738
38 406 0.49114 0.500778 0.521543
29 910 0.477937 0.584209 0.53868
28 910 0.473166 0.55777 0.529051
32 85 0.496041 0.578318 0.500898
26 907 0.485743 0.569297 0.533947
27 910 0.494182 0.563565 0.547904
33 82 0.513398 0.548831 0.507855
34 85 0.519744 0.541222 0.523325
11 911 0.5247 0.506956 0.511064
23 910 0.545084 0.550701 0.548029
30 81 0.503242 0.570983 0.514975
31 85 0.516778 0.582049 0.520185
6 911 0.550895 0.577302 0.510464
22 907 0.562455 0.553279 0.542832
24 910 0.573119 0.541293 0.552164
25 910 0.569086 0.569623 0.547237
1 908 0.567182 0.548244 0.518282
2 911 0.584261 0.549409 0.514771
3 911 0.562606 0.531021 0.51597
4 908 0.554829 0.562866 0.501923
ITEM: TIMESTEP
25000
ITEM: NUMBER OF ATOMS
66
ITEM: BOX BOUNDS pp pp pp
-3.0000000000000000e+01 3.0500000000000000e+01
-3.0000000000000000e+01 3.0500000000000000e+01
-3.0000000000000000e+01 3.0500000000000000e+01
ITEM: ATOMS id type xs ys zs
47 880 0.473511 0.452785 0.452725
46 419 0.483653 0.480914 0.476551
43 415 0.5103 0.474323 0.47615
44 416 0.520528 0.493081 0.465647
61 82 0.591149 0.473153 0.480971
62 85 0.584762 0.466232 0.465427
13 908 0.589113 0.499243 0.479673
45 416 0.508612 0.453075 0.465311
53 408 0.5551 0.47199 0.497626
18 911 0.586101 0.498791 0.443374
54 907 0.618332 0.44071 0.478549
55 910 0.610026 0.435483 0.46321
59 85 0.620671 0.46822 0.498493
57 910 0.635399 0.435769 0.477503
60 85 0.625325 0.476253 0.471788
56 910 0.610774 0.431246 0.491959
58 81 0.61519 0.465663 0.481964
37 911 0.482297 0.543793 0.488118
35 431 0.49504 0.534259 0.497541
36 911 0.502368 0.523494 0.485534
9 911 0.538796 0.535423 0.487602
15 911 0.572366 0.504786 0.483749
7 908 0.53349 0.551796 0.492097
16 908 0.595081 0.508144 0.456302
19 908 0.591265 0.532464 0.452846
21 911 0.594371 0.536489 0.435762
5 911 0.566491 0.567651 0.488833
8 911 0.52776 0.558932 0.476643
20 911 0.574088 0.536572 0.456084
63 907 0.60717 0.546651 0.466146
64 910 0.601973 0.563434 0.464514
65 910 0.606845 0.542802 0.483359
66 910 0.624383 0.54566 0.46037
14 911 0.599659 0.507758 0.491791
17 911 0.612629 0.505645 0.453126
39 407 0.479357 0.488984 0.533325
41 417 0.515604 0.471156 0.505394
42 418 0.503865 0.459838 0.512438
52 407 0.540858 0.446048 0.521355
12 911 0.521466 0.491473 0.535094
48 431 0.576619 0.463908 0.500145
49 911 0.581295 0.471685 0.515687
50 911 0.577185 0.446578 0.502576
51 406 0.538542 0.462007 0.508948
10 908 0.514935 0.493553 0.518688
40 408 0.484596 0.520983 0.513962
38 406 0.491117 0.500666 0.521744
29 910 0.47694 0.584764 0.53815
28 910 0.47299 0.557109 0.529912
32 85 0.495331 0.578678 0.500062
26 907 0.48572 0.56925 0.533764
27 910 0.494297 0.563196 0.548802
33 82 0.513307 0.548981 0.50799
34 85 0.519431 0.541105 0.522602
11 911 0.524961 0.506166 0.511071
23 910 0.546 0.551265 0.548478
30 81 0.503129 0.570967 0.514903
31 85 0.515865 0.582229 0.520039
6 911 0.550857 0.578698 0.510528
22 907 0.562871 0.553374 0.542672
24 910 0.572564 0.54194 0.551846
25 910 0.568227 0.56989 0.547517
1 908 0.56717 0.548467 0.518301
2 911 0.585206 0.549406 0.514697
3 911 0.562803 0.531301 0.515513
4 908 0.554782 0.562938 0.501868
ITEM: TIMESTEP
30000
ITEM: NUMBER OF ATOMS
66
ITEM: BOX BOUNDS pp pp pp
-3.0000000000000000e+01 3.0500000000000000e+01
-3.0000000000000000e+01 3.0500000000000000e+01
-3.0000000000000000e+01 3.0500000000000000e+01
ITEM: ATOMS id type xs ys zs
47 880 0.473739 0.452774 0.452517
46 419 0.483598 0.480797 0.476659
43 415 0.510333 0.474367 0.476317
44 416 0.520329 0.49313 0.46559
61 82 0.590904 0.473341 0.48095
62 85 0.584528 0.466115 0.46541
13 908 0.589058 0.499055 0.479718
45 416 0.508576 0.452981 0.465238
53 408 0.554925 0.472045 0.497522
18 911 0.586015 0.49852 0.443323
54 907 0.618242 0.440669 0.478495
55 910 0.610429 0.435269 0.462701
59 85 0.620245 0.468768 0.49856
57 910 0.635172 0.435671 0.477468
60 85 0.626191 0.474979 0.471444
56 910 0.611355 0.431432 0.492497
58 81 0.615271 0.465648 0.482209
37 911 0.48206 0.544323 0.488478
35 431 0.495057 0.534142 0.49762
36 911 0.502159 0.523262 0.485583
9 911 0.538378 0.535173 0.487871
15 911 0.57211 0.504974 0.482944
7 908 0.533671 0.551657 0.492089
16 908 0.595032 0.508183 0.456321
19 908 0.59137 0.532561 0.452715
21 911 0.594758 0.53584 0.435643
5 911 0.565889 0.568447 0.488309
8 911 0.528322 0.559131 0.476616
20 911 0.57432 0.536717 0.456347
63 907 0.607293 0.546557 0.466315
64 910 0.602242 0.563039 0.464879
65 910 0.607679 0.542367 0.483114
66 910 0.624388 0.545355 0.460508
14 911 0.599976 0.506969 0.492168
17 911 0.612589 0.504712 0.453264
39 407 0.47937 0.488835 0.533318
41 417 0.515619 0.471454 0.505297
42 418 0.504353 0.4598 0.511867
52 407 0.540835 0.446036 0.52127
12 911 0.521039 0.490987 0.535214
48 431 0.576554 0.463847 0.49996
49 911 0.582151 0.470545 0.515691
50 911 0.577426 0.447001 0.502453
51 406 0.538409 0.462138 0.508806
10 908 0.514936 0.493422 0.518942
40 408 0.484627 0.520975 0.514195
38 406 0.491109 0.500609 0.521962
29 910 0.476395 0.585032 0.537339
28 910 0.472756 0.556551 0.530776
32 85 0.494877 0.578842 0.499777
26 907 0.485729 0.569193 0.533617
27 910 0.494078 0.563015 0.549388
33 82 0.513215 0.549146 0.508082
34 85 0.51927 0.540757 0.522244
11 911 0.525359 0.505391 0.510852
23 910 0.546749 0.551805 0.548655
30 81 0.502936 0.571012 0.514795
31 85 0.515172 0.582644 0.520047
6 911 0.550858 0.579671 0.510108
22 907 0.56329 0.553507 0.542517
24 910 0.572341 0.542237 0.55204
25 910 0.567369 0.570174 0.547692
1 908 0.567203 0.548654 0.518301
2 911 0.585587 0.549455 0.514863
3 911 0.563056 0.531414 0.514973
4 908 0.55468 0.563088 0.501838
ITEM: TIMESTEP
35000
ITEM: NUMBER OF ATOMS
66
ITEM: BOX BOUNDS pp pp pp
-3.0000000000000000e+01 3.0500000000000000e+01
-3.0000000000000000e+01 3.0500000000000000e+01
-3.0000000000000000e+01 3.0500000000000000e+01
ITEM: ATOMS id type xs ys zs
47 880 0.47396 0.452777 0.45232
46 419 0.483522 0.480654 0.476713
43 415 0.51035 0.474395 0.47651
44 416 0.520135 0.493149 0.465548
61 82 0.590654 0.473507 0.480884
62 85 0.584219 0.466318 0.465717
13 908 0.589022 0.498913 0.479724
45 416 0.50857 0.452957 0.465186
53 408 0.554708 0.472076 0.497428
18 911 0.586158 0.498712 0.443841
54 907 0.618091 0.440617 0.478404
55 910 0.610991 0.435185 0.462775
59 85 0.620396 0.469659 0.499442
57 910 0.6355 0.435642 0.477441
60 85 0.627018 0.473731 0.47096
56 910 0.611869 0.431594 0.492754
58 81 0.615307 0.465598 0.482442
37 911 0.482709 0.544107 0.489451
35 431 0.495059 0.534048 0.497693
36 911 0.502031 0.522815 0.485287
9 911 0.53816 0.534455 0.487744
15 911 0.572142 0.504947 0.482203
7 908 0.533804 0.551549 0.492146
16 908 0.595005 0.508097 0.456327
19 908 0.591491 0.532654 0.452626
21 911 0.59496 0.535412 0.43503
5 911 0.564983 0.568771 0.488053
8 911 0.528961 0.559515 0.476607
20 911 0.574375 0.536967 0.456569
63 907 0.607454 0.546427 0.466415
64 910 0.602366 0.56375 0.465268
65 910 0.608351 0.541727 0.483869
66 910 0.624257 0.545026 0.460563
14 911 0.599887 0.505865 0.492325
17 911 0.61233 0.503807 0.453365
39 407 0.479345 0.488678 0.533327
41 417 0.515739 0.471863 0.505136
42 418 0.504259 0.459343 0.51148
52 407 0.540819 0.446047 0.521178
12 911 0.521006 0.49041 0.535928
48 431 0.57652 0.463963 0.4998
49 911 0.583171 0.469451 0.515696
50 911 0.577747 0.445886 0.502041
51 406 0.538299 0.462167 0.508675
10 908 0.514882 0.493256 0.519065
40 408 0.484619 0.520962 0.514434
38 406 0.491133 0.500617 0.522175
29 910 0.476634 0.584489 0.536258
28 910 0.472855 0.556442 0.531449
32 85 0.494882 0.578575 0.50038
26 907 0.48571 0.569115 0.533592
27 910 0.493341 0.563464 0.548946
33 82 0.513145 0.54929 0.508076
34 85 0.519356 0.540258 0.52256
11 911 0.525811 0.504894 0.510599
23 910 0.546904 0.552094 0.548474
30 81 0.502638 0.571139 0.514625
31 85 0.514903 0.583287 0.520184
6 911 0.550929 0.579421 0.509058
22 907 0.563667 0.553703 0.542395
24 910 0.572821 0.541976 0.552859
25 910 0.566885 0.570592 0.547655
1 908 0.567338 0.548793 0.518237
2 911 0.584934 0.549625 0.515236
3 911 0.563361 0.531505 0.514534
4 908 0.554539 0.563393 0.50183
ITEM: TIMESTEP
40000
ITEM: NUMBER OF ATOMS
66
ITEM: BOX BOUNDS pp pp pp
-3.0000000000000000e+01 3.0500000000000000e+01
-3.0000000000000000e+01 3.0500000000000000e+01
-3.0000000000000000e+01 3.0500000000000000e+01
ITEM: ATOMS id type xs ys zs
47 880 0.474172 0.452794 0.452133
46 419 0.483433 0.480484 0.476721
43 415 0.510343 0.474399 0.476693
44 416 0.519948 0.493137 0.465526
61 82 0.590462 0.473622 0.480793
62 85 0.583731 0.466678 0.465915
13 908 0.588989 0.498817 0.479649
45 416 0.508603 0.453028 0.465182
53 408 0.554472 0.472085 0.497351
18 911 0.586065 0.49896 0.4443
54 907 0.617985 0.440566 0.478344
55 910 0.611282 0.435053 0.462961
59 85 0.620843 0.470468 0.499974
57 910 0.635743 0.435877 0.477449
60 85 0.627298 0.472605 0.47073
56 910 0.612133 0.431577 0.49271
58 81 0.615324 0.465551 0.482696
37 911 0.483239 0.54379 0.490271
35 431 0.49514 0.533895 0.497796
36 911 0.501761 0.522604 0.485066
9 911 0.538088 0.534046 0.487431
15 911 0.572269 0.504758 0.481785
7 908 0.533877 0.551438 0.492241
16 908 0.595031 0.507918 0.456381
19 908 0.591626 0.532724 0.452547
21 911 0.594857 0.535254 0.43458
5 911 0.564176 0.568642 0.487852
8 911 0.529568 0.559877 0.47677
20 911 0.574472 0.537257 0.456609
63 907 0.607611 0.546331 0.466535
64 910 0.602675 0.564415 0.465759
65 910 0.60873 0.541161 0.484504
66 910 0.624324 0.544711 0.460383
14 911 0.599591 0.504908 0.492521
17 911 0.611988 0.503098 0.453368
39 407 0.479283 0.488516 0.53335
41 417 0.515898 0.47225 0.504979
42 418 0.50414 0.459215 0.511033
52 407 0.540802 0.446089 0.521072
12 911 0.52111 0.489899 0.536364
48 431 0.576525 0.464086 0.499698
49 911 0.584056 0.468603 0.515576
50 911 0.577869 0.445026 0.501063
51 406 0.538232 0.462098 0.508558
10 908 0.51483 0.493091 0.51912
40 408 0.484583 0.520948 0.514675
38 406 0.49118 0.500674 0.522375
29 910 0.477086 0.583989 0.535272
28 910 0.473127 0.556603 0.531725
32 85 0.49475 0.578418 0.500768
26 907 0.485653 0.568998 0.533591
27 910 0.492778 0.564259 0.54849
33 82 0.513131 0.549353 0.508017
34 85 0.519376 0.540183 0.52287
11 911 0.526017 0.504626 0.510629
23 910 0.546719 0.55208 0.54782
30 81 0.502339 0.571323 0.514511
31 85 0.514668 0.58368 0.520186
6 911 0.550729 0.579144 0.508177
22 907 0.564005 0.553899 0.542396
24 910 0.573406 0.542014 0.553494
25 910 0.566924 0.571065 0.547332
1 908 0.567476 0.548891 0.518109
2 911 0.584482 0.55002 0.515474
3 911 0.563724 0.531673 0.514317
4 908 0.554376 0.563717 0.501812
ITEM: TIMESTEP
45000
ITEM: NUMBER OF ATOMS
66
ITEM: BOX BOUNDS pp pp pp
-3.0000000000000000e+01 3.0500000000000000e+01
-3.0000000000000000e+01 3.0500000000000000e+01
-3.0000000000000000e+01 3.0500000000000000e+01
ITEM: ATOMS id type xs ys zs
47 880 0.474374 0.452826 0.451956
46 419 0.48334 0.480291 0.476693
43 415 0.510306 0.474387 0.476835
44 416 0.519766 0.493094 0.465527
61 82 0.590365 0.473675 0.480702
62 85 0.58305 0.467002 0.465691
13 908 0.588955 0.498745 0.479482
45 416 0.508679 0.453193 0.465239
53 408 0.554249 0.472068 0.497298
18 911 0.585415 0.498917 0.444239
54 907 0.617988 0.440534 0.478364
55 910 0.61104 0.434761 0.462821
59 85 0.621307 0.470822 0.499375
57 910 0.635512 0.43641 0.477493
60 85 0.626915 0.471855 0.470815
56 910 0.612043 0.431246 0.492488
58 81 0.615324 0.465523 0.482994
37 911 0.482879 0.543923 0.490387
35 431 0.495348 0.533631 0.497968
36 911 0.501337 0.522769 0.485082
9 911 0.538123 0.53444 0.487135
15 911 0.572183 0.504544 0.481822
7 908 0.533899 0.55131 0.492351
16 908 0.595109 0.507709 0.456508
19 908 0.591766 0.532755 0.452459
21 911 0.594464 0.535375 0.434738
5 911 0.563878 0.568243 0.487383
8 911 0.529971 0.560094 0.477119
20 911 0.574768 0.537505 0.456427
63 907 0.60776 0.546321 0.466735
64 910 0.603385 0.564037 0.466355
65 910 0.608764 0.540916 0.484107
66 910 0.624553 0.544455 0.460037
14 911 0.599331 0.504484 0.492964
17 911 0.611891 0.5026 0.453198
39 407 0.479195 0.488362 0.533382
41 417 0.516045 0.4725 0.504875
42 418 0.504394 0.459921 0.510413
52 407 0.540783 0.446149 0.52096
12 911 0.521114 0.489577 0.535882
48 431 0.576567 0.464085 0.499652
49 911 0.584569 0.468103 0.515328
50 911 0.57759 0.4458 0.499529
51 406 0.538214 0.461969 0.508442
10 908 0.514822 0.492966 0.519165
40 408 0.484533 0.520936 0.514907
38 406 0.491226 0.500747 0.52257
29 910 0.477113 0.584375 0.534659
28 910 0.473092 0.556534 0.531502
32 85 0.494072 0.578749 0.500206
26 907 0.485588 0.568858 0.533509
27 910 0.493 0.565033 0.549107
33 82 0.51318 0.549319 0.507954
34 85 0.519153 0.54082 0.52272
11 911 0.525848 0.504591 0.51107
23 910 0.546724 0.55185 0.546752
30 81 0.502117 0.571514 0.51452
31 85 0.514251 0.583622 0.519927
6 911 0.550041 0.579971 0.508092
22 907 0.56429 0.554054 0.542543
24 910 0.573633 0.542901 0.553403
25 910 0.567432 0.571402 0.546752
1 908 0.567545 0.548983 0.517946
2 911 0.585134 0.550687 0.515323
3 911 0.564113 0.531776 0.514302
4 908 0.554196 0.563913 0.501769
ITEM: TIMESTEP
50000
ITEM: NUMBER OF ATOMS
66
ITEM: BOX BOUNDS pp pp pp
-3.0000000000000000e+01 3.0500000000000000e+01
-3.0000000000000000e+01 3.0500000000000000e+01
-3.0000000000000000e+01 3.0500000000000000e+01
ITEM: ATOMS id type xs ys zs
47 880 0.474563 0.45287 0.451786
46 419 0.483244 0.480079 0.476637
43 415 0.510237 0.474375 0.476924
44 416 0.519593 0.493026 0.465554
61 82 0.590358 0.47365 0.480598
62 85 0.582465 0.467292 0.465332
13 908 0.58892 0.498698 0.479296
45 416 0.508798 0.453424 0.465352
53 408 0.554076 0.472018 0.497277
18 911 0.584611 0.498848 0.444099
54 907 0.618036 0.440523 0.478445
55 910 0.610515 0.434543 0.462706
59 85 0.621934 0.470852 0.498475
57 910 0.635305 0.436986 0.477528
60 85 0.626219 0.471816 0.470857
56 910 0.61167 0.430654 0.492162
58 81 0.615244 0.465474 0.483261
37 911 0.482311 0.543975 0.490226
35 431 0.495579 0.533344 0.498198
36 911 0.501058 0.522916 0.48502
9 911 0.538385 0.535082 0.486812
15 911 0.571932 0.504338 0.482209
7 908 0.533877 0.551218 0.49248
16 908 0.595199 0.50749 0.45663
19 908 0.591917 0.532733 0.452419
21 911 0.594012 0.535809 0.435075
5 911 0.564011 0.567672 0.486855
8 911 0.529987 0.560188 0.477473
20 911 0.575102 0.537685 0.456133
63 907 0.607942 0.546336 0.466923
64 910 0.604221 0.563329 0.466976
65 910 0.608562 0.54079 0.483411
66 910 0.624591 0.544328 0.459803
14 911 0.59902 0.504604 0.493337
17 911 0.612088 0.502296 0.452862
39 407 0.479095 0.488232 0.533412
41 417 0.516208 0.472615 0.504817
42 418 0.504537 0.460864 0.509965
52 407 0.540763 0.446206 0.520854
12 911 0.521194 0.48935 0.535131
48 431 0.576605 0.464064 0.499609
49 911 0.584669 0.467918 0.515161
50 911 0.57701 0.446996 0.497755
51 406 0.538229 0.461826 0.508309
10 908 0.514831 0.49291 0.519178
40 408 0.484487 0.520926 0.515124
38 406 0.491239 0.500794 0.522776
29 910 0.476853 0.585106 0.534399
28 910 0.472711 0.55616 0.530893
32 85 0.493328 0.579141 0.499553
26 907 0.485524 0.568758 0.533408
27 910 0.493641 0.565829 0.550093
33 82 0.513249 0.549249 0.507869
34 85 0.518958 0.541726 0.522617
11 911 0.525521 0.504972 0.511746
23 910 0.54702 0.551533 0.545658
30 81 0.501932 0.571671 0.514537
31 85 0.513981 0.583525 0.519607
6 911 0.549218 0.58102 0.508443
22 907 0.564485 0.554214 0.542709
24 910 0.573894 0.544 0.55315
25 910 0.568224 0.571536 0.546082
1 908 0.567631 0.549111 0.517779
2 911 0.58597 0.551491 0.514879
3 911 0.564493 0.531682 0.514398
4 908 0.553994 0.564026 0.501723
ITEM: TIMESTEP
55000
ITEM: NUMBER OF ATOMS
66
ITEM: BOX BOUNDS pp pp pp
-3.0000000000000000e+01 3.0500000000000000e+01
-3.0000000000000000e+01 3.0500000000000000e+01
-3.0000000000000000e+01 3.0500000000000000e+01
ITEM: ATOMS id type xs ys zs
47 880 0.475819 0.453365 0.450187
46 419 0.48146 0.478639 0.476136
43 415 0.508944 0.475014 0.477045
44 416 0.518989 0.493738 0.465793
61 82 0.590427 0.473325 0.480608
62 85 0.584773 0.466369 0.464659
13 908 0.588945 0.498929 0.478502
45 416 0.510944 0.453572 0.466124
53 408 0.55447 0.471832 0.496809
18 911 0.584704 0.499675 0.441989
48 431 0.575625 0.462628 0.498359
50 911 0.576014 0.445564 0.497715
54 907 0.617845 0.440398 0.479118
55 910 0.61085 0.434833 0.462978
59 85 0.618326 0.46985 0.499071
57 910 0.634949 0.436011 0.478552
60 85 0.626081 0.472773 0.471774
56 910 0.610512 0.430992 0.49267
58 81 0.614298 0.465397 0.482857
37 911 0.484017 0.539322 0.487763
35 431 0.496291 0.531777 0.499902
32 85 0.493023 0.57632 0.497231
36 911 0.50471 0.52013 0.489749
9 911 0.536335 0.535701 0.487392
15 911 0.571801 0.504462 0.481135
7 908 0.53204 0.552002 0.49242
16 908 0.595159 0.507329 0.455313
19 908 0.59338 0.532165 0.453925
21 911 0.595093 0.536126 0.436801
5 911 0.562659 0.569568 0.487283
8 911 0.527643 0.560348 0.477056
20 911 0.576806 0.536837 0.458815
14 911 0.598837 0.505648 0.492408
63 907 0.609938 0.545498 0.467634
64 910 0.605083 0.562031 0.465505
65 910 0.609508 0.542009 0.484636
66 910 0.6271 0.543797 0.461781
17 911 0.612115 0.502648 0.451003
39 407 0.478117 0.487826 0.534031
41 417 0.515908 0.472169 0.50552
42 418 0.505384 0.459946 0.511881
52 407 0.541069 0.445258 0.520627
12 911 0.521417 0.49202 0.535264
49 911 0.58208 0.467872 0.514286
51 406 0.538459 0.461092 0.507912
10 908 0.515086 0.493938 0.519125
40 408 0.48472 0.520105 0.51689
38 406 0.490801 0.500364 0.523545
29 910 0.475296 0.586092 0.536212
28 910 0.472712 0.556813 0.531022
26 907 0.484719 0.570332 0.53297
27 910 0.493852 0.565095 0.548492
33 82 0.512873 0.549096 0.509091
34 85 0.519759 0.542778 0.523922
11 911 0.526309 0.505301 0.511324
23 910 0.549318 0.552317 0.54775
30 81 0.501162 0.571426 0.513504
31 85 0.51341 0.583754 0.516867
6 911 0.548583 0.579792 0.51053
22 907 0.565799 0.556365 0.541595
24 910 0.577746 0.546477 0.5494
25 910 0.56907 0.573732 0.545231
1 908 0.569029 0.551317 0.516864
2 911 0.586761 0.556513 0.51358
3 911 0.568157 0.533615 0.513479
4 908 0.553378 0.563657 0.501895
ITEM: TIMESTEP
60000
ITEM: NUMBER OF ATOMS
66
ITEM: BOX BOUNDS pp pp pp
-3.0000000000000000e+01 3.0500000000000000e+01
-3.0000000000000000e+01 3.0500000000000000e+01
-3.0000000000000000e+01 3.0500000000000000e+01
ITEM: ATOMS id type xs ys zs
47 880 0.476727 0.453274 0.448181
46 419 0.48192 0.478362 0.475758
43 415 0.50866 0.474976 0.477827
44 416 0.517398 0.494398 0.467423
61 82 0.590725 0.472005 0.479098
62 85 0.585964 0.463813 0.463639
13 908 0.589047 0.497485 0.477714
45 416 0.511012 0.454357 0.466059
53 408 0.554045 0.469755 0.497055
18 911 0.585363 0.500084 0.442762
48 431 0.57613 0.463487 0.497968
50 911 0.575704 0.44593 0.494378
54 907 0.617946 0.440285 0.479846
55 910 0.612303 0.436723 0.46311
59 85 0.619618 0.470933 0.498497
57 910 0.635252 0.434914 0.47992
60 85 0.624866 0.472422 0.469861
56 910 0.608637 0.430063 0.491632
58 81 0.614384 0.465149 0.482409
37 911 0.481638 0.540921 0.492908
35 431 0.495627 0.532269 0.500596
32 85 0.491199 0.575276 0.498069
36 911 0.502272 0.521564 0.487316
9 911 0.536905 0.536155 0.486942
15 911 0.571977 0.503042 0.481252
7 908 0.531867 0.552015 0.493761
16 908 0.596181 0.507558 0.455331
19 908 0.593866 0.533251 0.454568
21 911 0.594805 0.53877 0.43746
5 911 0.560309 0.569595 0.485043
8 911 0.525483 0.560665 0.479296
20 911 0.577451 0.53767 0.460306
14 911 0.599032 0.503649 0.49157
63 907 0.612158 0.54505 0.468058
64 910 0.612431 0.562635 0.46611
65 910 0.609429 0.541226 0.485108
66 910 0.627861 0.538466 0.463884
17 911 0.612962 0.502653 0.449768
39 407 0.478494 0.487714 0.534783
41 417 0.515326 0.470836 0.50548
42 418 0.504201 0.457813 0.510617
52 407 0.541059 0.444512 0.520309
12 911 0.519831 0.487858 0.536112
49 911 0.583231 0.466601 0.514073
51 406 0.538286 0.460657 0.508385
10 908 0.514347 0.492004 0.519607
40 408 0.484832 0.52024 0.517398
38 406 0.490723 0.499988 0.524194
29 910 0.479149 0.589963 0.535556
28 910 0.468996 0.561917 0.529787
26 907 0.484315 0.572334 0.532686
27 910 0.491894 0.565055 0.548044
33 82 0.512641 0.548872 0.509859
34 85 0.519338 0.54312 0.525561
11 911 0.525763 0.504437 0.513603
23 910 0.550985 0.552238 0.546669
30 81 0.500016 0.571038 0.513277
31 85 0.5126 0.583925 0.515711
6 911 0.547735 0.582253 0.507749
22 907 0.566958 0.55779 0.540714
24 910 0.580492 0.550088 0.549961
25 910 0.567375 0.575565 0.542677
1 908 0.569242 0.553241 0.51531
2 911 0.585927 0.558107 0.509949
3 911 0.567653 0.53516 0.512432
4 908 0.552164 0.565609 0.501155
ITEM: TIMESTEP
65000
ITEM: NUMBER OF ATOMS
66
ITEM: BOX BOUNDS pp pp pp
-3.0000000000000000e+01 3.0500000000000000e+01
-3.0000000000000000e+01 3.0500000000000000e+01
-3.0000000000000000e+01 3.0500000000000000e+01
ITEM: ATOMS id type xs ys zs
47 880 0.477599 0.453631 0.446997
46 419 0.481586 0.477184 0.47653
43 415 0.508793 0.474409 0.477681
44 416 0.517884 0.494872 0.469677
61 82 0.590509 0.471809 0.478676
62 85 0.584729 0.464647 0.46337
13 908 0.588691 0.49812 0.477329
45 416 0.510108 0.45485 0.46408
53 408 0.554098 0.469709 0.496201
18 911 0.586281 0.501048 0.4428
48 431 0.575874 0.462394 0.49785
50 911 0.576933 0.443359 0.498832
54 907 0.619151 0.43909 0.479672